# LAMMPS data file written by OVITO Basic 3.7.8
344 atoms
2 atom types
-6.3296576 12.09618293 xlo xhi
-11.20798214 16.01430936 ylo yhi
1.1276019 36.1293343 zlo zhi

Masses

1 95.94  # Mo
2 32.065  # S

Atoms  # charge

1 1 0.0 -4.66299097 -0.28944325 3.17406144
2 1 0.0 -3.45230181 -2.9491908 8.72630113
3 2 0.0 -5.12491465 -0.46996162 7.42440396
4 2 0.0 -4.07262802 -2.23358148 1.88059931
5 2 0.0 -4.13360319 -2.6653773 3.7137475
6 2 0.0 -5.07710056 -0.893919 10.5249142
7 1 0.0 -1.75097439 -2.79014314 3.14746255
8 1 0.0 -0.73758887 -4.72164759 8.79870194
9 2 0.0 -1.73833163 -2.71851476 7.67356633
10 2 0.0 -0.69356775 -4.43709207 1.62038659
11 2 0.0 -0.81138323 -4.47332084 4.76532701
12 2 0.0 -2.0591923 -2.87036682 10.42495189
13 1 0.0 1.18490848 -4.44875237 3.24470651
14 1 0.0 1.85969369 -6.36818432 8.84913049
15 2 0.0 1.07944293 -4.30777711 7.56438441
16 2 0.0 1.98664609 -6.09301982 1.56287695
17 2 0.0 2.29799123 -5.93367778 4.9054265
18 2 0.0 1.15464635 -4.37591474 10.78828463
19 1 0.0 4.1579088 -5.88170991 3.24314485
20 1 0.0 4.8665262 -7.6679421 9.17308572
21 2 0.0 4.14017409 -6.04611817 7.49917007
22 2 0.0 4.46203612 -8.07718743 2.0686518
23 2 0.0 4.94672045 -7.74451299 4.69791986
24 2 0.0 3.5552937 -6.24727245 10.59975137
25 1 0.0 6.61663479 -7.17484206 2.92663529
26 1 0.0 7.58116173 -9.37962314 8.95066597
27 2 0.0 6.8104944 -7.74054587 7.30881247
28 2 0.0 7.74008666 -8.86514324 1.49846867
29 2 0.0 7.86020368 -8.90496605 4.17038619
30 2 0.0 6.88037137 -7.59505725 10.48166776
31 1 0.0 9.87911677 -9.23914537 2.746544
32 1 0.0 10.2127904 -10.89406877 8.17361622
33 2 0.0 9.37425851 -8.74262953 7.3850693
34 2 0.0 10.03939358 -11.20798214 1.20964862
35 2 0.0 11.47160236 -10.60473769 4.12574507
36 2 0.0 9.38366432 -10.13557717 10.36180896
37 1 0.0 -5.25231714 2.33562325 3.22663239
38 1 0.0 -3.82637811 0.77092982 9.16531354
39 2 0.0 -4.97020897 2.28919855 7.50266162
40 2 0.0 -3.46346749 0.98692822 1.50226824
41 2 0.0 -3.76794316 0.80256277 4.89940607
42 2 0.0 -4.9005868 2.46766244 10.63461782
43 1 0.0 -1.87700145 0.4653912 3.3080365
44 1 0.0 -0.90505236 -0.94066308 9.22688314
45 2 0.0 -1.90057518 0.67003343 7.56233654
46 2 0.0 -0.74714688 -1.13019863 1.51276527
47 2 0.0 -0.74713604 -1.18578206 4.83683948
48 2 0.0 -2.00043456 0.63271829 10.85699899
49 1 0.0 1.13506389 -1.02698814 3.19057944
50 1 0.0 2.0276283 -2.60630389 9.19855339
51 2 0.0 1.01293907 -0.94640335 7.58749383
52 2 0.0 2.23020056 -2.64966077 1.58124432
53 2 0.0 2.18882621 -2.69777348 4.77893925
54 2 0.0 0.95239466 -1.11535996 10.93845944
55 1 0.0 4.14955109 -2.62509799 3.19129522
56 1 0.0 5.06863534 -4.32854778 9.11575592
57 2 0.0 4.17866302 -2.64422418 7.47540467
58 2 0.0 5.10961116 -4.27561463 1.57120546
59 2 0.0 5.11455124 -4.27838814 4.84488512
60 2 0.0 3.93147682 -2.86854203 10.84764994
61 1 0.0 7.100735 -3.96375983 3.0401704
62 1 0.0 7.72004289 -6.1924419 9.06591099
63 2 0.0 7.13741663 -4.28181795 7.63775174
64 2 0.0 7.94413112 -5.66850815 1.49534049
65 2 0.0 7.83691754 -5.78076283 4.57802564
66 2 0.0 6.86255402 -4.17903497 10.85859238
67 1 0.0 9.82360419 -5.44699642 3.10115457
68 1 0.0 10.34728048 -7.79488282 9.44803123
69 2 0.0 9.78173704 -6.06810142 7.32184665
70 2 0.0 10.71306254 -7.31018419 1.38121562
71 2 0.0 10.81429926 -7.44125473 4.20006359
72 2 0.0 9.40208638 -5.74135268 10.40012806
73 1 0.0 -4.68253308 5.68643893 3.07542132
74 1 0.0 -4.3996779 3.92114255 8.70020598
75 2 0.0 -5.11002231 5.49837633 6.97784732
76 2 0.0 -4.0818332 3.28299515 2.0180805
77 2 0.0 -3.82827258 3.9218583 4.67617763
78 2 0.0 -4.47908468 5.61188116 10.88851878
79 1 0.0 -1.68050646 4.02660527 3.08487954
80 1 0.0 -0.89246528 2.46308879 9.04055627
81 2 0.0 -2.14090959 4.10603421 7.61038877
82 2 0.0 -1.0007265 2.32655914 1.84601314
83 2 0.0 -0.94478067 2.30313623 4.79317175
84 2 0.0 -1.7988529 3.96373445 10.75600937
85 1 0.0 1.0787915 2.30053426 3.23096583
86 1 0.0 2.09164699 0.79627876 9.0634662
87 2 0.0 1.05354837 2.38770018 7.42569634
88 2 0.0 2.08178407 0.6852235 1.5745004
89 2 0.0 2.14930894 0.62468218 4.80417128
90 2 0.0 0.96454385 2.32916828 10.70358332
91 1 0.0 4.17138577 0.73800773 3.24626118
92 1 0.0 4.99574919 -0.91719352 9.11857523
93 2 0.0 4.06330488 0.77029862 7.49750759
94 2 0.0 5.07139555 -0.93878317 1.54578964
95 2 0.0 5.01494333 -1.03158669 4.87675804
96 2 0.0 3.93546442 0.63739013 10.77876444
97 1 0.0 7.04805695 -0.77819733 3.39401817
98 1 0.0 7.84992922 -2.40989278 9.1836987
99 2 0.0 6.99813894 -0.75914252 7.59023806
100 2 0.0 7.93786554 -2.36210252 1.31635975
101 2 0.0 7.97008149 -2.51846596 4.9066215
102 2 0.0 6.80325771 -0.85654087 10.87557613
103 1 0.0 9.7975546 -2.32631901 2.86167564
104 1 0.0 10.8803277 -4.08506515 9.44240544
105 2 0.0 9.89874841 -2.55611524 7.75628231
106 2 0.0 10.6312676 -4.23876826 1.1276019
107 2 0.0 11.86600664 -3.1161026 3.94420766
108 2 0.0 9.58496127 -2.30924077 11.01711573
109 1 0.0 -5.31049088 8.82933507 3.52831115
110 1 0.0 -3.84684815 7.38061545 9.30294666
111 2 0.0 -4.78801268 9.06459627 7.74475958
112 2 0.0 -3.79388778 7.2154034 1.9396761
113 2 0.0 -3.73811561 7.32447163 4.73966714
114 2 0.0 -4.69156459 9.02229941 10.8994686
115 1 0.0 -1.69862447 7.37647062 3.29431031
116 1 0.0 -1.02185917 5.77100747 9.16429385
117 2 0.0 -2.04694714 7.45288014 7.55695368
118 2 0.0 -0.82794654 5.73427499 1.62788217
119 2 0.0 -0.82097574 5.70983318 4.9335287
120 2 0.0 -1.92331157 7.35253585 10.92103566
121 1 0.0 1.08114732 5.76051494 3.2878278
122 1 0.0 1.92705678 4.04898206 9.12632264
123 2 0.0 0.95238494 5.74326165 7.55386435
124 2 0.0 2.02696246 4.04378359 1.67602706
125 2 0.0 1.97780381 3.99289751 4.86275897
126 2 0.0 0.99744069 5.69152706 10.80482805
127 1 0.0 3.9424825 4.10062658 3.31783402
128 1 0.0 4.92727853 2.38344639 9.2357163
129 2 0.0 3.9690304 4.08434532 7.62790895
130 2 0.0 5.02651287 2.55510655 1.64784377
131 2 0.0 4.96131602 2.467541 4.96454775
132 2 0.0 3.8714284 3.98830542 10.89457308
133 1 0.0 6.89046716 2.45519775 3.34022895
134 1 0.0 7.92622259 0.8128369 9.32409029
135 2 0.0 6.9171673 2.44104801 7.67768833
136 2 0.0 7.91942893 0.86543673 1.71718943
137 2 0.0 8.05077415 0.91239729 4.95102323
138 2 0.0 6.65994918 2.60362291 11.02729859
139 1 0.0 10.4549182 1.04141147 3.55766947
140 1 0.0 10.75757525 -0.85500985 9.37063397
141 2 0.0 9.9609214 0.84910757 7.7785084
142 2 0.0 11.3739541 -1.13242851 1.38109298
143 2 0.0 11.02112803 -0.17900446 4.9828963
144 2 0.0 9.81271794 1.28264206 10.95183852
145 1 0.0 -5.14598375 12.39534796 3.52911335
146 1 0.0 -3.94381232 10.76496171 9.31051523
147 2 0.0 -4.95684503 12.46713924 7.81609262
148 2 0.0 -4.31199859 10.39715751 1.78843835
149 2 0.0 -3.83024832 10.58175211 4.54890977
150 2 0.0 -4.10947486 12.59952623 10.99443427
151 1 0.0 -2.19257938 11.04974974 3.40847683
152 1 0.0 -1.1498989 9.02560609 9.26934524
153 2 0.0 -2.03253165 10.8128682 7.67424961
154 2 0.0 -0.89226446 9.20989618 1.77045879
155 2 0.0 -0.95062977 9.10112919 4.9608179
156 2 0.0 -2.07161191 10.68812312 10.91484936
157 1 0.0 0.98780516 9.19469489 3.35764434
158 1 0.0 1.85525074 7.42381397 9.20198543
159 2 0.0 0.90115428 9.32029737 7.80323993
160 2 0.0 2.05383022 7.52997442 1.82208568
161 2 0.0 1.95949134 7.47096666 4.90846122
162 2 0.0 0.90087774 9.3323867 10.57717912
163 1 0.0 3.75206863 7.47052665 3.29332734
164 1 0.0 4.81649032 5.74372197 9.33377679
165 2 0.0 3.87961162 7.45026503 7.70367435
166 2 0.0 5.06867589 5.86601314 1.94241646
167 2 0.0 4.73185948 5.73811459 5.06959386
168 2 0.0 3.61187679 7.4830691 11.01319461
169 1 0.0 6.64552914 6.08053382 3.53452329
170 1 0.0 7.64690577 4.1880252 9.33060326
171 2 0.0 6.78084374 5.93885254 7.78578518
172 2 0.0 7.88935835 4.40502252 2.08979195
173 2 0.0 7.81374057 4.23117855 4.85406991
174 2 0.0 6.67242932 5.94197758 11.31965128
175 1 0.0 9.92852643 4.22050797 3.4805361
176 1 0.0 10.52308732 2.92398897 9.7985744
177 2 0.0 9.5961102 4.62736087 7.82136309
178 2 0.0 12.09618293 3.6113347 2.37227189
179 2 0.0 10.90884873 3.00787505 5.43331749
180 2 0.0 9.09642122 4.67077622 10.77112151
181 1 0.0 -4.0933083 16.01430936 4.15520213
182 1 0.0 -4.09770506 14.53437519 9.48406348
183 2 0.0 -4.81509551 15.47115607 7.34284348
184 2 0.0 -3.92064518 14.22188545 2.46943593
185 2 0.0 -3.74592599 13.8981392 5.28195156
186 2 0.0 -6.3296576 15.38314054 10.11288363
187 1 0.0 -1.70597947 13.98631004 3.42383141
188 1 0.0 -1.36463229 12.50078466 9.38362811
189 2 0.0 -2.19634018 13.91364777 8.11487247
190 2 0.0 -1.06458852 12.99637602 1.88698664
191 2 0.0 -1.11720803 12.17743966 4.92577723
192 2 0.0 -1.63211935 14.51510224 11.00108866
193 1 0.0 1.15058713 12.35055128 3.45605371
194 1 0.0 1.8008597 11.17019871 9.24452435
195 2 0.0 0.63875734 12.9975371 7.63174862
196 2 0.0 1.78200792 11.02110099 1.84007082
197 2 0.0 1.80017655 10.89836159 4.96471644
198 2 0.0 1.01309277 12.50653123 10.67357998
199 1 0.0 4.09222773 10.84958445 4.01122827
200 1 0.0 4.73997663 8.96141471 9.394275
201 2 0.0 3.80149826 10.73166205 7.5288771
202 2 0.0 4.42582035 9.43916291 1.99640949
203 2 0.0 5.03361792 8.88530421 5.12141422
204 2 0.0 3.92797437 10.65812111 10.92470728
205 1 0.0 6.54841797 9.04730689 3.21624276
206 1 0.0 7.56175236 7.65102573 9.50843113
207 2 0.0 6.56865406 9.32593056 7.88340661
208 2 0.0 8.02424693 7.55659322 2.03141754
209 2 0.0 7.89007396 7.56456107 5.17941021
210 2 0.0 6.78603936 9.26726141 11.31476057
211 1 0.0 9.41680745 7.65007113 3.65255414
212 1 0.0 10.65606149 5.78587129 9.62632609
213 2 0.0 9.54386065 7.74744671 7.88494726
214 2 0.0 11.099449 5.68057411 1.82900528
215 2 0.0 10.65835759 6.10681681 4.923145
216 2 0.0 9.44625538 7.30999437 11.14357058
217 2 0.0 4.14680353 -0.93099656 16.90489196
218 2 0.0 0.94238253 2.94822345 20.1546967
219 2 0.0 -2.92947583 4.86785107 23.05539452
220 2 0.0 -1.37408151 8.04157705 25.57144188
221 2 0.0 1.37274167 -3.26108538 31.74541014
222 2 0.0 5.21226794 2.47862211 30.99347873
223 2 0.0 0.85351774 2.11038261 36.02300696
224 2 0.0 4.58588571 7.1280527 35.73144016
225 2 0.0 1.14859096 -1.33675892 22.21493634
226 2 0.0 -2.29175028 -0.65354329 35.66239673
227 2 0.0 1.68283601 5.48567966 35.17423374
228 2 0.0 -3.93345438 3.26222989 21.57724415
229 2 0.0 4.69380301 1.53746903 23.92849215
230 2 0.0 -3.23148523 2.11545959 29.94734266
231 2 0.0 -3.12069826 -1.76338052 34.44767123
232 2 0.0 1.29369845 4.35064328 33.73177534
233 2 0.0 2.92145242 -3.04869205 29.78355384
234 2 0.0 3.08743211 2.81658606 18.323588
235 2 0.0 -3.67238088 -3.51291171 18.00401339
236 2 0.0 3.76913756 0.62507183 15.94198993
237 2 0.0 2.85941927 -0.29685716 33.05895058
238 2 0.0 -2.04677688 4.9541743 33.61307932
239 2 0.0 -1.21773346 6.46841123 16.96627444
240 2 0.0 -1.07099267 -1.01708072 27.80779552
241 2 0.0 4.48536389 5.58321978 27.49953637
242 2 0.0 3.11872695 5.10170952 21.18482215
243 2 0.0 -1.96980367 -1.16419581 21.22904518
244 2 0.0 3.36144729 5.11408389 31.04372928
245 2 0.0 -1.56620383 -0.75056159 30.54156493
246 2 0.0 -1.76092815 4.75151588 19.78142397
247 2 0.0 3.34249981 1.64716065 27.02861221
248 2 0.0 -0.12409423 -3.93479193 26.97602193
249 2 0.0 -1.4387921 3.1184467 15.95672298
250 2 0.0 1.38920335 -0.46235992 23.84514525
251 2 0.0 -2.99835587 1.26084533 19.49307979
252 2 0.0 2.13762371 7.60982241 19.59969862
253 2 0.0 3.20094545 -0.63815496 19.24329904
254 2 0.0 3.59468541 3.32743702 33.90849632
255 2 0.0 -1.67615832 -2.99958133 34.45952851
256 2 0.0 1.1516607 1.49021398 30.53030213
257 2 0.0 -1.6621938 2.21974291 22.00725644
258 2 0.0 4.93083392 -0.28755067 23.66967191
259 2 0.0 3.17396107 -2.79489415 21.88222206
260 2 0.0 -0.17317716 6.1331155 24.40703945
261 2 0.0 0.83684914 0.2703162 35.68824268
262 2 0.0 5.54758186 5.52960178 35.9312589
263 2 0.0 3.81546307 -3.9200563 17.66887073
264 2 0.0 0.6598659 -1.07486944 25.43988602
265 2 0.0 5.15009373 4.59283102 24.25338727
266 2 0.0 5.6943755 -0.90890061 13.10015613
267 2 0.0 5.89510054 -2.28631451 19.64958392
268 2 0.0 -0.0706394 5.43201163 18.06228247
269 2 0.0 2.35928635 1.76535573 21.46698845
270 2 0.0 -0.14705336 -1.51942016 29.61597622
271 2 0.0 4.45364123 4.96001203 29.54264554
272 2 0.0 -2.71981279 8.73601448 21.20718415
273 2 0.0 -3.3720755 1.05358707 33.04807549
274 2 0.0 2.11683459 7.33340858 33.20958569
275 2 0.0 5.53318038 7.77961525 32.70266256
276 2 0.0 -0.04432105 1.38396702 32.75412625
277 2 0.0 -3.32710421 7.19668903 31.78815406
278 2 0.0 0.28716635 7.02509429 21.21305656
279 2 0.0 0.12484977 4.47331762 13.31284396
280 2 0.0 5.31407059 1.49482041 20.49791943
281 2 0.0 -1.50312253 -2.69479682 22.56266765
282 2 0.0 2.63344266 4.87784363 22.05656922
283 2 0.0 3.16626756 -1.71956062 34.21660177
284 2 0.0 -1.81492554 3.50096213 34.75272788
285 2 0.0 -0.12186177 1.85689735 29.21449273
286 2 0.0 -1.6715941 1.47257729 14.10532518
287 2 0.0 2.64660706 7.94630924 13.98825027
288 2 0.0 3.41991637 1.11015142 26.06551759
289 2 0.0 5.89965078 -3.28784353 29.69975993
290 2 0.0 6.96782651 0.8999783 16.54422232
291 2 0.0 -0.49990638 -3.73458806 17.98716446
292 2 0.0 -3.06267827 7.38970079 25.97816846
293 2 0.0 -1.22776905 -1.51478404 19.56471459
294 2 0.0 4.08955006 4.67515168 19.65372655
295 2 0.0 -3.05982941 3.82782764 30.66739932
296 2 0.0 5.22611471 1.80045108 14.94157873
297 2 0.0 4.77719686 -0.60031049 31.47609045
298 2 0.0 3.16751992 -1.22167536 30.06046469
299 2 0.0 3.06179133 4.60508598 17.81521853
300 2 0.0 -3.88706478 2.09132101 34.50956211
301 2 0.0 -3.22051059 -1.00643734 18.09807737
302 2 0.0 -0.11031169 8.08248459 15.70404199
303 2 0.0 0.37347478 1.06484535 27.89357235
304 2 0.0 3.70760486 -0.81551218 20.12368478
305 2 0.0 5.93751412 6.61455967 26.88474219
306 2 0.0 2.12581303 5.35330337 25.1630677
307 2 0.0 1.48953204 -2.9640509 35.67330085
308 2 0.0 -0.89889101 7.12745873 28.96765687
309 2 0.0 1.50639501 2.7460569 22.78850795
310 2 0.0 -3.91944081 -0.19026496 26.29590714
311 2 0.0 -3.7666335 -3.79522902 22.31934438
312 2 0.0 -0.97173632 5.65272084 21.24775342
313 2 0.0 -2.67951286 7.09703898 14.22767675
314 2 0.0 -0.496997 -0.4235396 32.80279758
315 2 0.0 -1.1702502 4.30942771 31.3230945
316 2 0.0 5.10386301 5.96766199 32.63236916
317 2 0.0 4.11075375 1.59817184 28.72277593
318 2 0.0 4.98781491 7.54856133 16.75173769
319 2 0.0 1.04938929 -0.60110687 14.13843882
320 2 0.0 -0.79484376 1.6641724 16.95325332
321 2 0.0 -2.28676968 1.39242628 23.53132438
322 2 0.0 3.09651866 2.83142015 13.22682952
323 2 0.0 -0.33567253 -3.79385758 13.99432798
324 2 0.0 1.94150992 7.44482014 23.89440721
325 2 0.0 3.89077332 1.47964171 35.62726487
326 2 0.0 -0.86362084 2.93910045 25.22964163
327 2 0.0 4.09208474 -3.57862662 24.836199
328 2 0.0 0.91934795 -1.29089162 15.85699604
329 2 0.0 -2.04525741 2.77282575 26.67054136
330 2 0.0 5.36869887 4.85505551 15.55201361
331 2 0.0 5.36401806 -1.22810225 26.89124727
332 2 0.0 -2.16280425 -1.53715636 14.7018291
333 2 0.0 1.29955636 4.89705338 15.02039141
334 2 0.0 0.6791699 0.63771139 17.44970359
335 2 0.0 5.45040177 6.71085926 15.41461371
336 2 0.0 5.84996831 -0.19048093 28.34798302
337 2 0.0 -2.24802545 6.78082485 36.1293343
338 2 0.0 2.10293434 -1.69360385 26.87465422
339 2 0.0 -1.91722615 -3.31394711 15.2438068
340 2 0.0 2.40355473 3.39369926 14.86805705
341 2 0.0 3.16445424 -3.16206536 26.40217692
342 2 0.0 1.41055803 6.18884743 28.49620461
343 2 0.0 0.4592511 4.68781676 27.91425208
344 2 0.0 -2.8308957 4.2529464 27.3825076


#
344
Frame 5000 cell_orig -6.31076391 -11.30784658 1.13038042 cell_vec1 18.27276379 0.0 0.0 cell_vec2 0.0 27.30926324 0.0 cell_vec3 0.0 0.0 35.1275022 pbc 0 0 0
Mo -4.72310652 -0.29372927 3.03973645
Mo -3.48057308 -3.01418218 8.70455894
S -4.73734665 -0.46998763 7.35906563
S -4.28781741 -2.45365791 1.94557905
S -4.25410131 -2.57598993 3.79108768
S -4.86714591 -0.97883342 10.67561495
Mo -1.82700785 -2.74416851 3.17756892
Mo -0.58158767 -4.65221971 8.8450977
S -1.60446179 -2.80080097 7.63947108
S -0.7809087 -4.49485918 1.70216717
S -0.86489005 -4.41426825 4.80009861
S -2.16777376 -2.72310806 10.25812834
Mo 1.15099574 -4.45250013 3.28917033
Mo 1.89594556 -6.4627331 9.04292907
S 1.19834971 -4.47459088 7.73429122
S 2.13026028 -6.08002617 1.656875
S 2.26861658 -6.08420988 4.79807724
S 1.3092939 -4.45410769 10.8632886
Mo 4.06318665 -5.85213666 3.21351878
Mo 4.86989549 -7.73524244 8.94418635
S 4.02252894 -5.92805214 7.42087901
S 4.57491916 -8.03844304 2.12189551
S 5.0746529 -7.55455855 4.79662291
S 3.74892408 -6.32150007 10.64376305
Mo 6.70808457 -7.22497086 2.96150897
Mo 7.58215327 -9.40289977 8.88953175
S 7.00571353 -7.6069418 7.3438237
S 7.76619838 -8.88698552 1.43839798
S 7.93262787 -8.92254441 4.19373127
S 6.84859436 -7.7050378 10.47811124
Mo 9.90070193 -9.26993756 2.68690489
Mo 10.28622096 -10.96064036 8.1025591
S 9.36389049 -8.84694038 7.29036966
S 9.98503269 -11.30784658 1.19775856
S 11.56120306 -10.48169572 4.12549278
S 9.50493573 -10.05306994 10.20082784
Mo -5.15517686 2.36231762 3.21091139
Mo -3.69618855 0.76448003 9.25649487
S -4.79751605 2.26021968 7.58234254
S -3.48781192 1.09467955 1.39021569
S -3.82769529 0.66569634 4.79955224
S -4.87264192 2.52108321 10.68160796
Mo -1.8638806 0.52018973 3.22566566
Mo -0.7931783 -0.92401339 9.1176067
S -1.81897903 0.80176837 7.58906556
S -0.77369956 -1.16606176 1.52465777
S -0.86988935 -1.12831506 4.8403638
S -1.76862708 0.54360527 10.90409317
Mo 1.07058364 -1.01495158 3.22944484
Mo 1.99144256 -2.63194094 9.20849748
S 1.17062786 -0.96465595 7.53235393
S 2.13139644 -2.62309019 1.62653842
S 2.16775955 -2.69084749 4.75504247
S 1.01191256 -0.98434211 10.84410035
Mo 4.1338277 -2.64595676 3.16951883
Mo 4.99335571 -4.30301916 9.08918155
S 4.19515242 -2.55748649 7.44739467
S 5.04451524 -4.29673708 1.49622571
S 5.15339615 -4.26718088 4.83273093
S 3.93073668 -2.76306485 10.76152242
Mo 7.0854025 -4.00957669 2.92535777
Mo 7.8200208 -6.233768 9.23041118
S 7.13661141 -4.33637376 7.71878434
S 7.93340321 -5.74530013 1.42052779
S 7.86907241 -5.73165338 4.55565684
S 6.6946945 -4.39330352 10.98432161
Mo 9.74020915 -5.4235356 3.03486761
Mo 10.41353951 -7.89717502 9.35051756
S 9.7618511 -6.12383678 7.24281748
S 10.88748297 -7.34359265 1.41335079
S 10.72787439 -7.36349135 4.11450062
S 9.46304211 -5.85104653 10.45465746
Mo -4.59743893 5.66271441 3.23988022
Mo -4.3243425 3.99061573 8.82099795
S -5.14538906 5.43961907 6.9885701
S -4.21436448 3.41789724 1.87038117
S -3.83142292 3.83232602 4.66321098
S -4.87253208 5.61122255 10.8651209
Mo -1.82849706 3.89681412 2.87762877
Mo -0.86140047 2.46869698 9.14802549
S -2.0891704 4.06911073 7.64636107
S -1.03981405 2.36018231 1.70702143
S -1.02395592 2.38386968 4.69392918
S -1.85849217 4.02511148 10.85495349
Mo 0.99989628 2.31144261 3.2066508
Mo 2.08596053 0.80282486 9.05860078
S 0.99670864 2.40827941 7.44516306
S 1.98413385 0.69583119 1.56667124
S 2.08335877 0.68004656 4.81165149
S 1.03424485 2.32872984 10.76147221
Mo 4.1132167 0.76519677 3.24695892
Mo 5.06675806 -0.90215374 9.13532672
S 4.05110295 0.72185199 7.48618491
S 4.91324644 -0.9481507 1.54105438
S 4.99675008 -0.99472755 4.87439257
S 3.92515005 0.64645431 10.7720478
Mo 6.97517968 -0.7592525 3.3047541
Mo 7.907432 -2.51106071 9.28890859
S 7.02740205 -0.92209613 7.55044482
S 7.97163097 -2.35855076 1.30734946
S 8.10020551 -2.5238927 4.64772941
S 6.84768237 -0.8939947 10.8990876
Mo 9.88478883 -2.24874008 2.90590733
Mo 10.82899667 -4.05589567 9.42687574
S 9.83707222 -2.68110611 7.69172312
S 10.63075967 -4.16764339 1.13038042
S 11.96199988 -3.1023778 4.00947041
S 9.69826879 -2.16901569 11.04161621
Mo -5.3696394 8.84491866 3.57115041
Mo -3.82368444 7.31088625 9.34997683
S -4.7849409 8.87188757 7.85152482
S -3.90879205 7.1915316 2.02042094
S -3.83948201 7.31946948 4.79721006
S -4.83366035 8.9207952 10.98429317
Mo -1.78601635 7.38420694 3.36907917
Mo -0.99091256 5.73296822 9.20551538
S -1.99689393 7.47531 7.66228317
S -0.92558135 5.75680019 1.67430735
S -0.8667421 5.65431087 4.94460883
S -1.9138902 7.28298721 10.99617415
Mo 1.02478037 5.73338997 3.28844385
Mo 1.95914548 4.0365415 9.13743908
S 0.93409883 5.74805552 7.56057663
S 1.98280513 4.07539658 1.65191442
S 1.9187399 3.99876378 4.88383629
S 1.05415225 5.69711576 10.80847858
Mo 3.86988621 4.14266865 3.28869462
Mo 4.91110398 2.36075216 9.20492767
S 3.93792486 4.00750423 7.55542522
S 4.97051449 2.58904379 1.65842933
S 4.87431608 2.52251736 4.94276316
S 3.9465275 3.98274036 10.88779247
Mo 6.81963743 2.5113649 3.35542006
Mo 7.91531711 0.72104939 9.25592192
S 6.88898998 2.37074218 7.63597246
S 7.77164493 0.87375891 1.69661278
S 8.03104429 0.92378225 4.88829504
S 6.64952981 2.55846174 11.02067994
Mo 10.30325728 0.98383009 3.50673714
Mo 10.7453916 -1.01421597 9.2338326
S 9.99031617 0.83019242 7.785372
S 11.61920834 -1.04718415 1.42602797
S 11.03468405 -0.09824674 4.92262321
S 9.78792046 1.05387949 10.91283788
Mo -5.11867774 12.34792011 3.71872044
Mo -3.91561196 10.65171351 9.37584618
S -5.15228583 12.40759021 8.00436187
S -4.42004426 10.37278855 1.86340973
S -3.79181823 10.41384011 4.60022525
S -4.22478682 12.53456018 11.01473526
Mo -2.18881178 11.02959907 3.45604455
Mo -1.08258191 9.08082461 9.38041415
S -2.02617141 10.7729588 7.73827964
S -0.97256899 9.15608764 1.77497619
S -0.93780888 9.04280344 5.08647382
S -2.04717421 10.74525827 11.02959359
Mo 0.91999925 9.22193578 3.37800561
Mo 1.90870779 7.39197614 9.17117158
S 0.94421316 9.33917458 7.8638021
S 1.86224067 7.55575281 1.73681085
S 1.94049705 7.43252925 4.85011767
S 0.97441027 9.24377879 10.6327121
Mo 3.73424039 7.56411983 3.24388306
Mo 4.78889162 5.64981373 9.26005194
S 3.89046701 7.31293989 7.64607501
S 4.95882146 5.97279366 1.90930773
S 4.68210188 5.82991099 4.98005716
S 3.65883195 7.49485577 10.94438353
Mo 6.64371237 6.11094409 3.42478552
Mo 7.60866896 4.11620178 9.27080229
S 6.72207499 5.85869812 7.66185827
S 7.9092886 4.37651987 2.04885245
S 7.86305201 4.32613275 4.72790357
S 6.65704887 5.80702353 11.1741827
Mo 9.97798579 4.23125944 3.43521376
Mo 10.50439561 2.72197451 9.87119901
S 9.55839714 4.41128982 7.80404989
S 11.91933305 3.2006426 2.34433597
S 10.84194287 2.95687599 5.31499961
S 9.0971634 4.54396253 10.71414904
Mo -4.08811572 16.00141666 4.05432094
Mo -4.08568762 14.45156773 9.56614176
S -4.78275136 15.49261399 7.44035253
S -3.80393958 14.09194063 2.54032603
S -3.63225932 13.95228902 5.34678925
S -6.31076391 15.25051065 10.22501054
Mo -1.55921187 14.08097874 3.5448988
Mo -1.18115824 12.44584115 9.35260895
S -2.27875816 13.76432816 8.03757639
S -0.97952712 13.07351297 1.98390895
S -0.92399051 12.23644831 5.04704527
S -1.70798331 14.21151191 11.05733722
Mo 1.35031657 12.50107513 3.36749406
Mo 1.78142886 11.22616924 9.22776816
S 0.76303322 12.83609264 7.62557346
S 1.66777228 11.05339593 1.72806618
S 1.79552316 10.96453408 4.95042092
S 0.93999646 12.48054051 10.92999002
Mo 4.0458458 10.94810086 3.96774472
Mo 4.78243735 8.91231136 9.25966453
S 3.77411228 10.74028772 7.45699107
S 4.41951155 9.47600578 1.99656683
S 5.05155581 9.02737728 5.13578556
S 3.82569826 10.65187253 10.7786196
Mo 6.67322246 9.05109431 3.2366699
Mo 7.56564048 7.56919703 9.30299051
S 6.64920666 9.34338525 7.75364823
S 8.23624081 7.52764786 2.08321355
S 7.79938551 7.45139422 5.19386979
S 6.73152968 8.96415776 11.23722499
Mo 9.48388283 7.88672768 3.77841553
Mo 10.62829681 5.74784407 9.59077959
S 9.58736062 7.62274154 7.78834943
S 11.13142811 5.84988917 1.9299973
S 10.65377555 6.13733378 4.96112378
S 9.4520405 7.36124493 11.0225453
S 4.26015881 -0.78289512 17.09309727
S 0.96207943 3.04325865 20.09751904
S -2.94928088 5.02514998 23.1477767
S -1.56845998 8.00120837 25.51455221
S 1.28216346 -3.21285917 31.7743026
S 5.10490545 2.45794029 31.18688083
S 0.82552052 2.19560047 36.0407937
S 4.67675112 7.11964923 35.66760121
S 1.09833582 -1.33592932 22.24557864
S -2.39477002 -0.62507975 35.55166721
S 1.72545723 5.52350466 35.17487592
S -4.04430083 3.43618256 21.58843961
S 4.58365994 1.51255184 23.88656075
S -3.23864321 2.23377612 29.96707855
S -3.21078845 -1.83919762 34.3403995
S 1.33270375 4.43219284 33.7084939
S 2.82489854 -2.99321649 29.7931176
S 3.06645621 2.88448209 18.38908698
S -3.66640179 -3.41440911 17.86988323
S 3.81126671 0.64048389 15.99115941
S 2.76018642 -0.28697094 33.15703996
S -2.05614419 5.0478636 33.654674
S -1.19472606 6.53535089 16.84460573
S -1.16322447 -0.89063469 27.85214001
S 4.50341134 5.49746559 27.52881953
S 3.12067144 5.05380522 21.28746916
S -2.09355908 -1.11450061 21.21530934
S 3.36642454 5.11580334 31.068624
S -1.59025912 -0.5940744 30.60723045
S -1.70802325 4.91776136 19.6906204
S 3.33734861 1.56425389 27.04317232
S -0.22470193 -3.90031828 27.03274237
S -1.27041741 3.19827206 15.94607408
S 1.27140973 -0.42574038 23.86771487
S -2.79262683 1.28006203 19.57070307
S 2.17755479 7.66651789 19.6059303
S 3.13872309 -0.60494254 19.36428971
S 3.56705472 3.33077165 33.93851546
S -1.75475916 -3.02475544 34.60675837
S 1.07949882 1.54818323 30.56440404
S -1.82091735 2.34138769 22.10432493
S 4.85968731 -0.31506603 23.77502355
S 3.10925952 -2.7813147 21.91187183
S -0.1884114 6.20023998 24.45165594
S 0.79196546 0.34037063 35.78156437
S 5.43348855 5.40404542 35.87465253
S 3.73830978 -3.74996215 17.86199594
S 0.54358134 -1.04292737 25.47248697
S 5.00358654 4.66716335 24.2832789
S 5.78473566 -0.92333282 13.07409707
S 5.89730556 -2.0908166 19.6970532
S -0.00171227 5.67566253 17.98245386
S 2.19898536 1.77078194 21.47444005
S -0.27387889 -1.48941783 29.65267567
S 4.42451608 4.85456284 29.56448144
S -2.92243286 8.93819215 20.88187008
S -3.44391768 1.14539491 33.02628208
S 2.35374128 7.50797612 33.54922908
S 5.88300786 7.75272203 32.57273184
S -0.11503655 1.45748943 32.78717094
S -3.15893656 7.31482823 31.85062314
S 0.18686095 7.13113148 21.08243838
S 0.2292721 4.44077227 13.30372698
S 5.21418901 1.39846864 20.61055015
S -1.53979108 -2.68345837 22.47823321
S 2.58824392 4.84602434 22.06034051
S 3.22098248 -1.78955644 34.15476787
S -1.85050024 3.54485367 34.74203592
S -0.19665926 1.83329915 29.2327848
S -1.55948386 1.50148616 14.11846962
S 2.6888144 7.96756653 14.08323791
S 3.37212573 1.1522054 26.08882899
S 5.90027115 -3.52887813 29.63570613
S 7.12072522 1.31701933 16.65651316
S -0.4946506 -3.62305802 18.04844916
S -3.19905122 7.13535968 25.90297513
S -1.27102615 -1.42510474 19.56670969
S 4.0668984 4.74454029 19.7368403
S -3.09914676 3.97471007 30.63121824
S 5.28757454 1.80550737 14.99648877
S 4.67147928 -0.60005657 31.55633917
S 3.04737069 -1.17532385 30.1321983
S 3.22670006 4.65409916 17.84910538
S -3.97890134 2.21518147 34.45404923
S -3.19890867 -0.95393488 18.01582893
S 0.11674188 8.13815358 15.47513014
S 0.3719764 1.14376515 27.91029251
S 3.69274429 -0.70644209 20.25892369
S 6.01660543 6.47390272 26.99479179
S 2.07409193 5.2687806 25.10734333
S 1.49365133 -3.06743247 35.51107004
S -0.85357077 7.22536036 28.87921235
S 1.416272 2.75402366 22.84674963
S -4.00228168 -0.03890456 25.95897097
S -3.65967214 -3.86222389 22.32096559
S -1.0189532 5.69239508 21.24428744
S -2.59377164 7.08724669 14.16255031
S -0.54174984 -0.34548358 32.88508068
S -1.20560273 4.41257547 31.37844521
S 5.13798228 6.02108666 32.60082863
S 4.0186049 1.57712835 28.77579158
S 4.60779878 7.65177404 16.83344379
S 1.28437055 -0.61194334 14.21004117
S -0.71308713 1.74731931 16.95963718
S -2.44926736 1.36491481 23.54317841
S 3.16789436 2.82763532 13.2564719
S -0.20009622 -3.6823366 13.91943085
S 1.81479353 7.58434231 24.01640376
S 4.04255049 1.38246746 35.46055613
S -0.90066671 2.99835114 25.166777
S 3.98753591 -3.54177683 24.84443381
S 0.94127535 -1.24810567 15.92992228
S -2.02038633 2.82757271 26.65389732
S 5.49767142 4.96317837 15.50629452
S 5.23630959 -1.2138867 26.88036104
S -2.11752932 -1.48576696 14.70817966
S 1.41675422 4.93533229 15.00330352
S 0.72359767 0.68409015 17.48216689
S 5.49694479 6.82800892 15.73729731
S 5.72179727 -0.23898296 28.39640741
S -2.34816394 6.49743321 36.25788262
S 1.97920777 -1.67772176 26.9013426
S -1.80005388 -3.20834986 15.32349961
S 2.51624732 3.44003948 14.88733566
S 3.03930778 -3.12414942 26.42667625
S 1.44498991 6.24461322 28.51533331
S 0.43938371 4.76787305 27.98759758
S -2.85251221 4.33170413 27.43645492
