      24
 i =        0, time =        0.000, E =      -708.9378622996
 Mo         0.0372788000        1.8749599500        3.1648800400
  S         4.7812199600        0.9387559900        4.7265601200
  S         4.8041000400        0.9436399900        1.6125299900
  S         3.1872799400        1.8712300100       10.8204002400
 Mo        -1.5822099400        4.5872597700        3.1308200400
 Mo         0.0241416000        3.7105100200        9.2748203300
  S        -1.5715299800        4.6234102200        7.6827998200
  S        -0.0063865700        3.6756999500        4.7253899600
  S         0.0335518000        3.6971399800        1.5891300400
  S        -1.5779399900        4.5905799900       10.8506002400
 Mo         1.6149100100        4.6222300500        3.1710898900
 Mo         1.6188900500        0.9001299700        9.2677803000
 Mo         3.1940400600        3.6902101000        9.2446699100
  S         1.5812900100        4.5969100000        7.6977801300
  S         3.1913299600        3.7101500000        4.7158598900
  S         3.1743199800        3.6709899900        1.5858500000
  S         1.6345100400        4.6018099800       10.8373003000
  S         0.0318250000        1.8563100100        7.7358698800
  S         1.6004899700        0.9060040100        4.7105999000
  S         1.5781500300        0.9443609700        1.6066800400
  S         0.0053764300        1.8450800200       10.8147001300
 Mo         3.1897599700        1.8439600500        3.1550900900
 Mo         4.7840499900        0.9341390100        9.2679195400
  S         3.1977899100        1.8574800500        7.6964998200
      24
 i =        1, time =        1.000, E =      -708.9376963733
 Mo         0.0392930357        1.8734555816        3.1642402014
  S         4.7824183757        0.9377108570        4.7250636982
  S         4.8026425610        0.9418497895        1.6096093046
  S         3.1924558903        1.8672443839       10.8222721347
 Mo        -1.5796590317        4.5861303595        3.1310664786
 Mo         0.0247251283        3.7094046563        9.2768321232
  S        -1.5719177972        4.6215425449        7.6850769547
  S        -0.0109153960        3.6726190517        4.7231431345
  S         0.0299947731        3.6998894958        1.5863720237
  S        -1.5789254168        4.5963079509       10.8486039861
 Mo         1.6137800630        4.6249313319        3.1697997562
 Mo         1.6196542094        0.8996640406        9.2695952327
 Mo         3.1936711196        3.6908674468        9.2425430224
  S         1.5789565773        4.5964136429        7.7001687061
  S         3.1906263055        3.7151850487        4.7158327563
  S         3.1794085546        3.6727677771        1.5865338526
  S         1.6338545767        4.5978801701       10.8402590570
  S         0.0304890583        1.8575350708        7.7367331056
  S         1.6017248932        0.9061307427        4.7098793054
  S         1.5759680215        0.9468891148        1.6078274533
  S         0.0066293944        1.8448334297       10.8203563417
 Mo         3.1875078728        1.8440496935        3.1542073548
 Mo         4.7860091675        0.9342045116        9.2667951463
  S         3.1896334322        1.8568208779        7.6967768493
      24
 i =        2, time =        2.000, E =      -708.9373483847
 Mo         0.0411909315        1.8719070065        3.1636108754
  S         4.7837389376        0.9366940419        4.7235410980
  S         4.8012653777        0.9400501910        1.6066594358
  S         3.1976380665        1.8632219734       10.8241722780
 Mo        -1.5771645633        4.5850583828        3.1313222848
 Mo         0.0252771661        3.7082677693        9.2788726408
  S        -1.5723412389        4.6196217642        7.6874157016
  S        -0.0153346250        3.6696538277        4.7209093295
  S         0.0265009040        3.7026383370        1.5835764213
  S        -1.5799830997        4.6020420069       10.8465323113
 Mo         1.6125871266        4.6276219616        3.1684988514
 Mo         1.6204148643        0.8992326225        9.2714377154
 Mo         3.1933540120        3.6915463545        9.2404381770
  S         1.5766887878        4.5960542404        7.7025298780
  S         3.1900306562        3.7201284060        4.7157943077
  S         3.1845627384        3.6745852253        1.5872003525
  S         1.6331543266        4.5940638028       10.8431844654
  S         0.0290914342        1.8587295689        7.7375140517
  S         1.6030177753        0.9062033789        4.7091694615
  S         1.5739163486        0.9492875377        1.6088325945
  S         0.0078939529        1.8445788384       10.8260559222
 Mo         3.1852468280        1.8441703420        3.1533510476
 Mo         4.7879911470        0.9342227947        9.2656732082
  S         3.1814846990        1.8561029800        7.6970314264
      24
 i =        3, time =        3.000, E =      -708.9368275907
 Mo         0.0429631611        1.8703187917        3.1629874639
  S         4.7851742104        0.9357134884        4.7219935800
  S         4.7999704231        0.9382525360        1.6036913054
  S         3.2028207864        1.8591801457       10.8260847045
 Mo        -1.5747334256        4.5840534203        3.1315865530
 Mo         0.0257930776        3.7071002204        9.2809470690
  S        -1.5727923060        4.6176546689        7.6898056534
  S        -0.0196214399        3.6668093618        4.7187001555
  S         0.0230883381        3.7053729352        1.5807513891
  S        -1.5811104292        4.6077602643       10.8443950371
 Mo         1.6113300183        4.6302933339        3.1671845912
 Mo         1.6211649621        0.8988400626        9.2733084600
 Mo         3.1930859717        3.6922411286        9.2383657671
  S         1.5744912206        4.5958342271        7.7048494889
  S         3.1895407832        3.7249669897        4.7157403408
  S         3.1897655290        3.6764396083        1.5878482245
  S         1.6324191784        4.5903736443       10.8460601691
  S         0.0276451005        1.8598889621        7.7382125602
  S         1.6043681851        0.9062164181        4.7084773058
  S         1.5720064148        0.9515409772        1.6096833831
  S         0.0091684140        1.8443131525       10.8317780753
 Mo         3.1829849916        1.8443249562        3.1525231984
 Mo         4.7899905675        0.9341912052        9.2645601551
  S         3.1733727422        1.8553263637        7.6972600724
      24
 i =        4, time =        4.000, E =      -708.9361459366
 Mo         0.0446011196        1.8686955664        3.1623653459
  S         4.7867160576        0.9347769679        4.7204226678
  S         4.7987589061        0.9364680761        1.6007157600
  S         3.2079983849        1.8551360395       10.8279938487
 Mo        -1.5723721242        4.5831248473        3.1318582744
 Mo         0.0262683560        3.7059030129        9.2830603249
  S        -1.5732627312        4.6156483555        7.6922362671
  S        -0.0237538206        3.6640901098        4.7165273652
  S         0.0197743933        3.7080798740        1.5779050306
  S        -1.5823045181        4.6134404235       10.8422029364
 Mo         1.6100080836        4.6329369219        3.1658544015
 Mo         1.6218973982        0.8984907011        9.2752079093
 Mo         3.1928640000        3.6929460577        9.2363359214
  S         1.5723681970        4.5957553217        7.7071137601
  S         3.1891537569        3.7296883475        4.7156668829
  S         3.1949994857        3.6783280760        1.5884761671
  S         1.6316591103        4.5868216828       10.8488704182
  S         0.0261631806        1.8610088447        7.7388288846
  S         1.6057750757        0.9061647397        4.7078097125
  S         1.5702488923        0.9536348751        1.6103685084
  S         0.0104510754        1.8440333022       10.8375022340
 Mo         3.1807307259        1.8445162745        3.1517255565
 Mo         4.7920020687        0.9341073633        9.2634622899
  S         3.1653265498        1.8544915246        7.6974592276
      24
 i =        5, time =        5.000, E =      -708.9353174941
 Mo         0.0460969792        1.8670419851        3.1617398945
  S         4.7883556843        0.9338920335        4.7188301112
  S         4.7976313248        0.9347079247        1.5977435424
  S         3.2131651906        1.8511064905       10.8298846936
 Mo        -1.5700867396        4.5822817791        3.1321363494
 Mo         0.0266986617        3.7046772947        9.2852169998
  S        -1.5737440307        4.6136102001        7.6946969240
  S        -0.0277106494        3.6614999072        4.7144026983
  S         0.0165754551        3.7107459641        1.5750454068
  S        -1.5835622377        4.6190598529       10.8399677625
 Mo         1.6086212002        4.6355443163        3.1645057470
 Mo         1.6226050722        0.8981888470        9.2771362111
 Mo         3.1926848917        3.6936554446        9.2343584300
  S         1.5703237370        4.5958184831        7.7093093828
  S         3.1888659698        3.7342806895        4.7155701530
  S         3.2002467996        3.6802476660        1.5890828682
  S         1.6308841217        4.5834191132       10.8516001925
  S         0.0246588571        1.8620849790        7.7393636784
  S         1.6072367664        0.9060436576        4.7071733866
  S         1.5686536432        0.9555554754        1.6108775790
  S         0.0117402055        1.8437362568       10.8432082169
 Mo         3.1784925559        1.8447468026        3.1509595911
 Mo         4.7940203238        0.9339691702        9.2623857422
  S         3.1573749401        1.8535994389        7.6976252761
      24
 i =        6, time =        6.000, E =      -708.9343593541
 Mo         0.0474437498        1.8653626952        3.1611064923
  S         4.7900836691        0.9330659761        4.7172179372
  S         4.7965874783        0.9329830133        1.5947851857
  S         3.2183154995        1.8471079650       10.8317428099
 Mo        -1.5678828830        4.5815330076        3.1324195990
 Mo         0.0270798568        3.7034243541        9.2874213106
  S        -1.5742275675        4.6115478258        7.6971770700
  S        -0.0314718258        3.6590419707        4.7123378037
  S         0.0135068751        3.7133583129        1.5721804655
  S        -1.5848802646        4.6245956710       10.8377021765
 Mo         1.6071697823        4.6381072657        3.1631361583
 Mo         1.6232809426        0.8979387579        9.2790932005
 Mo         3.1925452645        3.6943636339        9.2324426803
  S         1.5683615389        4.5960238787        7.7114236794
  S         3.1886731615        3.7387329258        4.7154466170
  S         3.2054893595        3.6821953120        1.5896669394
  S         1.6301041603        4.5801763375       10.8542352175
  S         0.0231452776        1.8631133225        7.7398180566
  S         1.6087509244        0.9058489732        4.7065748477
  S         1.5672296359        0.9572899403        1.6112011894
  S         0.0130340281        1.8434190406       10.8488762874
 Mo         3.1762791222        1.8450188024        3.1502264921
 Mo         4.7960400727        0.9337748104        9.2613364303
  S         3.1495464389        1.8526515484        7.6977546530
      24
 i =        7, time =        7.000, E =      -708.9332918032
 Mo         0.0486353146        1.8636623016        3.1604605472
  S         4.7918900283        0.9323057788        4.7155883410
  S         4.7956264897        0.9313040407        1.5918510291
  S         3.2234435509        1.8431565075       10.8335545411
 Mo        -1.5657656661        4.5808869516        3.1327067813
 Mo         0.0274080430        3.7021456214        9.2896770439
  S        -1.5747046095        4.6094690717        7.6996662343
  S        -0.0350183408        3.6567189291        4.7103440299
  S         0.0105828848        3.7159043916        1.5693181110
  S        -1.5862551092        4.6300248410       10.8354197941
 Mo         1.6056547744        4.6406177113        3.1617432596
 Mo         1.6239180857        0.8977446104        9.2810783764
 Mo         3.1924415861        3.6950650403        9.2305975875
  S         1.5664849223        4.5963708412        7.7134446582
  S         3.1885704567        3.7430346832        4.7152928951
  S         3.2107088243        3.6841678595        1.5902269740
  S         1.6293290638        4.5771029503       10.8567621313
  S         0.0216354692        1.8640900613        7.7401935421
  S         1.6103145645        0.9055770233        4.7060202753
  S         1.5659848738        0.9588264333        1.6113311184
  S         0.0143306995        1.8430787466       10.8544873578
 Mo         3.1740991359        1.8453342856        3.1495271769
 Mo         4.7980561540        0.9335227568        9.2603200137
  S         3.1418691478        1.8516497436        7.6978438325
      24
 i =        8, time =        8.000, E =      -708.9321350053
 Mo         0.0496664903        1.8619453396        3.1597975034
  S         4.7937642510        0.9316180698        4.7139437936
  S         4.7947468312        0.9296814417        1.5889510802
  S         3.2285434906        1.8392676864       10.8353069496
 Mo        -1.5637396587        4.5803515886        3.1329966022
 Mo         0.0276795915        3.7008426608        9.2919875209
  S        -1.5751663988        4.6073819539        7.7021542178
  S        -0.0383324158        3.6545328115        4.7084323733
  S         0.0078165098        3.7183720952        1.5664660901
  S        -1.5876831593        4.6353242682       10.8331350170
 Mo         1.6040776529        4.6430678316        3.1603247931
 Mo         1.6245097473        0.8976104811        9.2830908976
 Mo         3.1923702060        3.6957541722        9.2288315470
  S         1.5646968175        4.5968578575        7.7153612079
  S         3.1885523937        3.7471763449        4.7151058657
  S         3.2158867043        3.6861620780        1.5907614567
  S         1.6285684865        4.5742077555       10.8591684154
  S         0.0201422550        1.8650116294        7.7404921704
  S         1.6119240361        0.9052247311        4.7055155506
  S         1.5649263113        0.9601542350        1.6112603419
  S         0.0156283034        1.8427125526       10.8600229568
 Mo         3.1719613275        1.8456950024        3.1488622908
 Mo         4.8000635373        0.9332117684        9.2593418661
  S         3.1343706223        1.8505963351        7.6978895023
      24
 i =        9, time =        9.000, E =      -708.9309108056
 Mo         0.0505330456        1.8602162437        3.1591128573
  S         4.7956953559        0.9310090821        4.7122869311
  S         4.7939463564        0.9281253446        1.5860950443
  S         3.2336093748        1.8354565551       10.8369879886
 Mo        -1.5618088693        4.5799344109        3.1332877352
 Mo         0.0278911774        3.6995171675        9.2943555510
  S        -1.5756042161        4.6052946309        7.7046311091
  S        -0.0413975592        3.6524850906        4.7066132558
  S         0.0052195072        3.7207497956        1.5636320758
  S        -1.5891607209        4.6404709170       10.8308630679
 Mo         1.6024404105        4.6454500730        3.1588786449
 Mo         1.6250494009        0.8975403139        9.2851295656
 Mo         3.1923273845        3.6964256569        9.2271523743
  S         1.5629997260        4.5974825391        7.7171631232
  S         3.1886129740        3.7511490546        4.7148825667
  S         3.2210044358        3.6881746762        1.5912688275
  S         1.6278318466        4.5714987587       10.8614425511
  S         0.0186781459        1.8658747375        7.7407164301
  S         1.6135750400        0.9047896484        4.7050661016
  S         1.5640598185        0.9612638111        1.6109831971
  S         0.0169248287        1.8423177342       10.8654654235
 Mo         3.1698743997        1.8461024376        3.1482322197
 Mo         4.8020573542        0.9328408936        9.2584070314
  S         3.1270777384        1.8494940237        7.6978885523
      24
 i =       10, time =       10.000, E =      -708.9296425892
 Mo         0.0512317360        1.8584793242        3.1584021680
  S         4.7976719422        0.9304846064        4.7106205857
  S         4.7932223282        0.9266455281        1.5832922337
  S         3.2386351313        1.8317376176       10.8385864956
 Mo        -1.5599767150        4.5796423666        3.1335788340
 Mo         0.0280398064        3.6981709593        9.2967834026
  S        -1.5760094508        4.6032153622        7.7070874167
  S        -0.0441986628        3.6505767028        4.7048964498
  S         0.0028023026        3.7230263926        1.5608236140
  S        -1.5906840566        4.6454419298       10.8286198512
 Mo         1.6007455474        4.6477571903        3.1574028677
 Mo         1.6255307991        0.8975378949        9.2871928258
 Mo         3.1923093233        3.6970742623        9.2255672658
  S         1.5613957057        4.5982416155        7.7188412354
  S         3.1887457045        3.7549447425        4.7146202372
  S         3.2260434574        3.6902023197        1.5917474387
  S         1.6271282629        4.5689831871       10.8635740069
  S         0.0172552696        1.8666763911        7.7408693117
  S         1.6152626339        0.9042699965        4.7046768896
  S         1.5633901225        0.9621468953        1.6104954299
  S         0.0182181548        1.8418916773       10.8707979302
 Mo         3.1678469792        1.8465578028        3.1476370961
 Mo         4.8040329276        0.9324094673        9.2575201978
  S         3.1200165823        1.8483458576        7.6978381825
      24
 i =       11, time =       11.000, E =      -708.9283534495
 Mo         0.0517603150        1.8567387436        3.1576610704
  S         4.7996822452        0.9300499533        4.7089477156
  S         4.7925714549        0.9252513885        1.5805515771
  S         3.2436145433        1.8281247978       10.8400922897
 Mo        -1.5582460074        4.5794818131        3.1338685498
 Mo         0.0281228439        3.6968059697        9.2992727724
  S        -1.5763736704        4.6011524680        7.7095141138
  S        -0.0467220641        3.6488080893        4.7032908938
  S         0.0005739464        3.7251913554        1.5580481749
  S        -1.5922494268        4.6502147555       10.8264219107
 Mo         1.5989960539        4.6499822775        3.1558957022
 Mo         1.6259480277        0.8976068191        9.2892787666
 Mo         3.1923121963        3.6976949190        9.2240827543
  S         1.5598863415        4.5991309226        7.7203874509
  S         3.1889436507        3.7585561310        4.7143162665
  S         3.2309852897        3.6922416487        1.5921955986
  S         1.6264665098        4.5666674788       10.8655533153
  S         0.0158852907        1.8674139134        7.7409542753
  S         1.6169812580        0.9036647029        4.7043523104
  S         1.5629207857        0.9627965471        1.6097943006
  S         0.0195060348        1.8414318916       10.8760046038
 Mo         3.1658875675        1.8470620332        3.1470768101
 Mo         4.8059858014        0.9319171120        9.2566856654
  S         3.1132123180        1.8471552107        7.6977359376
      24
 i =       12, time =       12.000, E =      -708.9270662151
 Mo         0.0521175558        1.8549984992        3.1568852906
  S         4.8017141903        0.9297099112        4.7072714455
  S         4.7919899221        0.9239519026        1.5778815115
  S         3.2485412235        1.8246314182       10.8414961297
 Mo        -1.5566189324        4.5794584621        3.1341555463
 Mo         0.0281380323        3.6954242367        9.3018247676
  S        -1.5766886948        4.5991142873        7.7119027845
  S        -0.0489556341        3.6471792198        4.7018046390
  S        -0.0014579327        3.7272347639        1.5553130781
  S        -1.5938531180        4.6547672973       10.8242862319
 Mo         1.5971953948        4.6521188057        3.1543555984
 Mo         1.6262955525        0.8977504617        9.2913851267
 Mo         3.1923321822        3.6982827383        9.2227046811
  S         1.5584727461        4.6001454156        7.7217948805
  S         3.1891994894        3.7619767556        4.7139682469
  S         3.2358116195        3.6942892973        1.5926115148
  S         1.6258549633        4.5645573092       10.8673720281
  S         0.0145793388        1.8680849536        7.7409753140
  S         1.6187247562        0.9029734333        4.7040962037
  S         1.5626541709        0.9632072162        1.6088785754
  S         0.0207860851        1.8409360220       10.8810705161
 Mo         3.1640044914        1.8476157816        3.1465510212
 Mo         4.8079117644        0.9313637321        9.2559073253
  S         3.1066890856        1.8459257202        7.6975798497
      24
 i =       13, time =       13.000, E =      -708.9258027274
 Mo         0.0523032418        1.8532624073        3.1560706584
  S         4.8037554535        0.9294687130        4.7055949706
  S         4.7914734346        0.9227555984        1.5752900236
  S         3.2534086039        1.8212701761       10.8427898195
 Mo        -1.5550970494        4.5795773434        3.1344385152
 Mo         0.0280835166        3.6940278928        9.3044398889
  S        -1.5769466648        4.5971091369        7.7142456378
  S        -0.0508888112        3.6456896404        4.7004446626
  S        -0.0032871412        3.7291473355        1.5526255706
  S        -1.5954914829        4.6590780606       10.8222301895
 Mo         1.5953474862        4.6541606486        3.1527812324
 Mo         1.6265682692        0.8979719422        9.2935093058
 Mo         3.1923654937        3.6988330322        9.2214381648
  S         1.5571555364        4.6012791704        7.7230578262
  S         3.1895055652        3.7652009591        4.7135739000
  S         3.2405043747        3.6963419135        1.5929933702
  S         1.6253015573        4.5626575903       10.8690228175
  S         0.0133479359        1.8686875067        7.7409368861
  S         1.6204864140        0.9021966208        4.7039117430
  S         1.5625914480        0.9633747732        1.6077486249
  S         0.0220557707        1.8404018577       10.8859818120
 Mo         3.1622058580        1.8482194174        3.1460591714
 Mo         4.8098068776        0.9307495149        9.2551886320
  S         3.1004698752        1.8446612452        7.6973684274
      24
 i =       14, time =       14.000, E =      -708.9245841694
 Mo         0.0523181710        1.8515340916        3.1552131248
  S         4.8057935199        0.9293299995        4.7039215960
  S         4.7910172496        0.9216705220        1.5727845465
  S         3.2582099096        1.8180531402       10.8439661494
 Mo        -1.5536812818        4.5798427552        3.1347161896
 Mo         0.0279578535        3.6926191533        9.3071180256
  S        -1.5771401138        4.5951452666        7.7165356446
  S        -0.0525126745        3.6443385025        4.6992168364
  S        -0.0049089493        3.7309204560        1.5499927459
  S        -1.5971609687        4.6631263018       10.8202713307
 Mo         1.5934566746        4.6561021175        3.1511715242
 Mo         1.6267615439        0.8982740918        9.2956483835
 Mo         3.1924084113        3.6993413293        9.2202875864
  S         1.5559348451        4.6025254059        7.7241718817
  S         3.1898539500        3.7682239094        4.7131311376
  S         3.2450458131        3.6983961789        1.5933392709
  S         1.6248137403        4.5609724941       10.8704994054
  S         0.0122009385        1.8692199165        7.7408439763
  S         1.6222589958        0.9013354885        4.7038014654
  S         1.5627325883        0.9632965497        1.6064063717
  S         0.0233123959        1.8398273442       10.8907256746
 Mo         3.1604995056        1.8488730226        3.1456004976
 Mo         4.8116674927        0.9300749227        9.2545325914
  S         3.0945764458        1.8433658182        7.6971007887
      24
 i =       15, time =       15.000, E =      -708.9234307321
 Mo         0.0521641315        1.8498169754        3.1543087774
  S         4.8078157438        0.9292967937        4.7022546368
  S         4.7906162200        0.9207042133        1.5703720049
  S         3.2629381623        1.8149917184       10.8450189721
 Mo        -1.5523719283        4.5802582362        3.1349873579
 Mo         0.0277600300        3.6912003031        9.3098584521
  S        -1.5772620358        4.5932308185        7.7187665410
  S        -0.0538199580        3.6431246114        4.6981257641
  S        -0.0063200832        3.7325461957        1.5474216160
  S        -1.5988581476        4.6668921889       10.8184272972
 Mo         1.5915277093        4.6579379809        3.1495256500
 Mo         1.6268712570        0.8986594158        9.2977991387
 Mo         3.1924573110        3.6998033921        9.2192565690
  S         1.5548103030        4.6038765129        7.7251339074
  S         3.1902364991        3.7710415813        4.7126379945
  S         3.2494185969        3.7004488310        1.5936473295
  S         1.6243984393        4.5595054498       10.8717966558
  S         0.0111474726        1.8696808958        7.7407020110
  S         1.6240347956        0.9003920668        4.7037671718
  S         1.5630764003        0.9629713512        1.6048553443
  S         0.0245530941        1.8392105911       10.8952904400
 Mo         3.1588929627        1.8495763941        3.1451740480
 Mo         4.8134902750        0.9293406933        9.2539417387
  S         3.0890292060        1.8420435957        7.6967766496
      24
 i =       16, time =       16.000, E =      -708.9223596514
 Mo         0.0518438881        1.8481142770        3.1533538608
  S         4.8098094124        0.9293714704        4.7005974605
  S         4.7902648298        0.9198636743        1.5680587126
  S         3.2675861607        1.8120966598       10.8459431251
 Mo        -1.5511686646        4.5808265234        3.1352508748
 Mo         0.0274894648        3.6897736838        9.3126598369
  S        -1.5773059510        4.5913737836        7.7209329535
  S        -0.0548051016        3.6420464541        4.6971747843
  S        -0.0075187314        3.7340173304        1.5449190208
  S        -1.6005797465        4.6703569664       10.8167155686
 Mo         1.5895657167        4.6596634963        3.1478430559
 Mo         1.6268938350        0.8991300592        9.2999580793
 Mo         3.1925086975        3.7002152297        9.2183479769
  S         1.5537810607        4.6053240938        7.7259421026
  S         3.1906449214        3.7736507844        4.7120926813
  S         3.2536058821        3.7024966848        1.5939156132
  S         1.6240620230        4.5582591690       10.8729104876
  S         0.0101958947        1.8700695098        7.7405169272
  S         1.6258056822        0.8993692059        4.7038099791
  S         1.5636205418        0.9623994593        1.6031005968
  S         0.0257748196        1.8385498819       10.8996655426
 Mo         3.1573934015        1.8503290410        3.1447786960
 Mo         4.8152722155        0.9285478315        9.2534181332
  S         3.0838471550        1.8406988084        7.6963964435
      24
 i =       17, time =       17.000, E =      -708.9213865591
 Mo         0.0513611431        1.8464290083        3.1523447942
  S         4.8117618070        0.9295557392        4.6989533792
  S         4.7899572365        0.9191553503        1.5658504304
  S         3.2721464825        1.8093780383       10.8467345144
 Mo        -1.5500705677        4.5815495356        3.1355056716
 Mo         0.0271460201        3.6883416794        9.3155202513
  S        -1.5772659676        4.5895819610        7.7230303820
  S        -0.0554642417        3.6411022461        4.6963658311
  S        -0.0085045142        3.7353273456        1.5424916994
  S        -1.6023226724        4.6735031227       10.8151533723
 Mo         1.5875761699        4.6612744235        3.1461234658
 Mo         1.6268262873        0.8996877684        9.3021214705
 Mo         3.1925592304        3.7005731138        9.2175639064
  S         1.5528457841        4.6068589929        7.7265959335
  S         3.1910708360        3.7760491358        4.7114935127
  S         3.2575913872        3.7045366533        1.5941422402
  S         1.6238102722        4.5572356395       10.8738379641
  S         0.0093537427        1.8703851949        7.7402950713
  S         1.6275631631        0.8982705837        4.7039302279
  S         1.5643615821        0.9615826203        1.6011487307
  S         0.0269743416        1.8378436820       10.9038416222
 Mo         3.1560076013        1.8511301898        3.1444131569
 Mo         4.8170106494        0.9276976081        9.2529633432
  S         3.0790477724        1.8393357114        7.6959612935
      24
 i =       18, time =       18.000, E =      -708.9205249692
 Mo         0.0507205090        1.8447639759        3.1512781953
  S         4.8136602703        0.9298506267        4.6973256951
  S         4.7896873073        0.9185851053        1.5637522634
  S         3.2766114749        1.8068452520       10.8473900135
 Mo        -1.5490761286        4.5824283400        3.1357507650
 Mo         0.0267299945        3.6869067020        9.3184371915
  S        -1.5771368428        4.5878629211        7.7250553122
  S        -0.0557952418        3.6402899563        4.6956994716
  S        -0.0092784748        3.7364704499        1.5401461876