      24
 i =        0, time =        0.000, E =      -708.9378622996
 Mo         0.0372788000        1.8749599500        3.1648800400
  S         4.7812199600        0.9387559900        4.7265601200
  S         4.8041000400        0.9436399900        1.6125299900
  S         3.1872799400        1.8712300100       10.8204002400
 Mo        -1.5822099400        4.5872597700        3.1308200400
 Mo         0.0241416000        3.7105100200        9.2748203300
  S        -1.5715299800        4.6234102200        7.6827998200
  S        -0.0063865700        3.6756999500        4.7253899600
  S         0.0335518000        3.6971399800        1.5891300400
  S        -1.5779399900        4.5905799900       10.8506002400
 Mo         1.6149100100        4.6222300500        3.1710898900
 Mo         1.6188900500        0.9001299700        9.2677803000
 Mo         3.1940400600        3.6902101000        9.2446699100
  S         1.5812900100        4.5969100000        7.6977801300
  S         3.1913299600        3.7101500000        4.7158598900
  S         3.1743199800        3.6709899900        1.5858500000
  S         1.6345100400        4.6018099800       10.8373003000
  S         0.0318250000        1.8563100100        7.7358698800
  S         1.6004899700        0.9060040100        4.7105999000
  S         1.5781500300        0.9443609700        1.6066800400
  S         0.0053764300        1.8450800200       10.8147001300
 Mo         3.1897599700        1.8439600500        3.1550900900
 Mo         4.7840499900        0.9341390100        9.2679195400
  S         3.1977899100        1.8574800500        7.6964998200
      24
 i =        1, time =        1.000, E =      -708.9375535454
 Mo         0.0401493870        1.8728425332        3.1639720510
  S         4.7828880909        0.9372737554        4.7244494929
  S         4.8020227747        0.9411125681        1.6084078209
  S         3.1945973647        1.8656047288       10.8230382784
 Mo        -1.5785922189        4.5856526612        3.1311664527
 Mo         0.0249723767        3.7089534773        9.2776606037
  S        -1.5720694680        4.6207812644        7.6860053098
  S        -0.0128091267        3.6713201236        4.7222121250
  S         0.0285122311        3.7010256968        1.5852390903
  S        -1.5793181544        4.5986748501       10.8477945650
 Mo         1.6133247174        4.6260506552        3.1692670645
 Mo         1.6199700214        0.8994647968        9.2703414943
 Mo         3.1935070456        3.6911340938        9.2416596630
  S         1.5779774367        4.5961803243        7.7011607824
  S         3.1903121578        3.7172867929        4.7158229461
  S         3.1814993045        3.6734954091        1.5868204402
  S         1.6335943644        4.5962316969       10.8414880234
  S         0.0299511041        1.8580478753        7.7371075972
  S         1.6022244438        0.9061932349        4.7095800394
  S         1.5750397029        0.9479598937        1.6083295558
  S         0.0071456362        1.8447323036       10.8226859063
 Mo         3.1865785144        1.8440810605        3.1538367184
 Mo         4.7868148593        0.9342408174        9.2663302469
  S         3.1862593012        1.8565599025        7.6968955614
      24
 i =        2, time =        2.000, E =      -708.9368408239
 Mo         0.0428993579        1.8706827403        3.1630727797
  S         4.7846757520        0.9358232185        4.7223130976
  S         4.8000270347        0.9385804323        1.6042608705
  S         3.2019185804        1.8599497952       10.8256979733
 Mo        -1.5750340219        4.5841070652        3.1315219269
 Mo         0.0257696797        3.7073657063        9.2805318693
  S        -1.5726414271        4.6181018401        7.6892682077
  S        -0.0191122007        3.6670583670        4.7190521600
  S         0.0235437481        3.7049051641        1.5813137586
  S        -1.5807676748        4.6067667872       10.8449171878
 Mo         1.6116756486        4.6298570140        3.1674324143
 Mo         1.6210436360        0.8988359759        9.2729306396
 Mo         3.1930248831        3.6920773530        9.2386758141
  S         1.5747325391        4.5955890127        7.7045079946
  S         3.1894018685        3.7243261892        4.7157728958
  S         3.1887375104        3.6760394056        1.5877729110
  S         1.6326378748        4.5907724590       10.8456354974
  S         0.0280207315        1.8597532517        7.7382626860
  S         1.6040170512        0.9063258861        4.7085738277
  S         1.5720649310        0.9514223719        1.6098312360
  S         0.0089257686        1.8443753290       10.8307064826
 Mo         3.1833913214        1.8442344263        3.1526107657
 Mo         4.7896003382        0.9342941517        9.2647460880
  S         3.1747483932        1.8555808645        7.6972673044
      24
 i =        3, time =        3.000, E =      -708.9357412130
 Mo         0.0455151010        1.8684869688        3.1621759989
  S         4.7865729053        0.9344157199        4.7201526950
  S         4.7981159357        0.9360595268        1.6001042232
  S         3.2092353657        1.8542894089       10.8283571596
 Mo        -1.5715453576        4.5826366807        3.1318852480
 Mo         0.0265268781        3.7057479140        9.2834415567
  S        -1.5732346263        4.6153814308        7.6925738232
  S        -0.0252630817        3.6629219755        4.7159269331
  S         0.0186723593        3.7087594213        1.5773650469
  S        -1.5822850113        4.6148244006       10.8419821463
 Mo         1.6099608823        4.6336369159        3.1655823113
 Mo         1.6221009957        0.8982497945        9.2755487598
 Mo         3.1925898317        3.6930319541        9.2357329825
  S         1.5715619237        4.5951398786        7.7078015324
  S         3.1885963406        3.7312495598        4.7157039109
  S         3.1960108759        3.6786180968        1.5887053518
  S         1.6316543854        4.5854503257       10.8497198543
  S         0.0260520237        1.8614197141        7.7393345475
  S         1.6058675119        0.9063939912        4.7075911434
  S         1.5692425406        0.9547263372        1.6111671173
  S         0.0107145368        1.8440048042       10.8387327224
 Mo         3.1802097294        1.8444244454        3.1514152069
 Mo         4.7923988911        0.9342951244        9.2631761036
  S         3.1632981295        1.8545430487        7.6976096371
      24
 i =        4, time =        4.000, E =      -708.9342778189
 Mo         0.0479837489        1.8662616634        3.1612756290
  S         4.7885688406        0.9330624261        4.7179703897
  S         4.7962918236        0.9335656055        1.5959526356
  S         3.2165394078        1.8486472188       10.8309945110
 Mo        -1.5681358572        4.5812550149        3.1322551013
 Mo         0.0272374758        3.7041015002        9.2863967766
  S        -1.5738375109        4.6126298703        7.6959072913
  S        -0.0312299079        3.6589174234        4.7128537913
  S         0.0139231210        3.7125698723        1.5734035522
  S        -1.5838663359        4.6228154205       10.8390049553
 Mo         1.6081790782        4.6373782372        3.1637131598
 Mo         1.6231321805        0.8977126244        9.2781965054
 Mo         3.1921979305        3.6939900345        9.2328453595
  S         1.5684719240        4.5948359685        7.7110215489
  S         3.1878920983        3.7380390787        4.7156105433
  S         3.2032952800        3.6812274075        1.5896155110
  S         1.6306577235        4.5802822667       10.8537192578
  S         0.0240631984        1.8630410301        7.7403229143
  S         1.6077748944        0.9063899877        4.7066418019
  S         1.5665887818        0.9578503981        1.6123197559
  S         0.0125097024        1.8436165244       10.8467360044
 Mo         3.1770452376        1.8446551734        3.1502526899
 Mo         4.7952030175        0.9342401439        9.2616291193
  S         3.1519493076        1.8534473214        7.6979167060
      24
 i =        5, time =        5.000, E =      -708.9324814543
 Mo         0.0502932659        1.8640132646        3.1603657542
  S         4.7906522228        0.9317742641        4.7157686029
  S         4.7945562846        0.9311141605        1.5918204851
  S         3.2238222768        1.8430462369       10.8335897029
 Mo        -1.5648147062        4.5799752997        3.1326300872
 Mo         0.0278951679        3.7024280566        9.2894042415
  S        -1.5744382818        4.6098572989        7.6992536720
  S        -0.0369818211        3.6550503778        4.7098503614
  S         0.0093199763        3.7163183868        1.5694394824
  S        -1.5855075765        4.6307068157       10.8360026185
 Mo         1.6063294842        4.6410689979        3.1618214334
 Mo         1.6241273288        0.8972308911        9.2808741197
 Mo         3.1918450329        3.6949438322        9.2300266113
  S         1.5654685308        4.5946794987        7.7141487490
  S         3.1872849696        3.7446777701        4.7154876945
  S         3.2105662920        3.6838630854        1.5905009501
  S         1.6296616315        4.5752841550       10.8576130377
  S         0.0220724207        1.8646112077        7.7412278548
  S         1.6097375878        0.9063068014        4.7057354313
  S         1.5641192040        0.9607739975        1.6132724331
  S         0.0143090528        1.8432063916       10.8546884143
 Mo         3.1739094448        1.8449304068        3.1491255334
 Mo         4.7980052993        0.9341259223        9.2601136860
  S         3.1407423894        1.8522952833        7.6981822746
      24
 i =        6, time =        6.000, E =      -708.9303881994
 Mo         0.0524325430        1.8617481604        3.1594406362
  S         4.7928111598        0.9305618542        4.7135500916
  S         4.7929101695        0.9287203735        1.5877216702
  S         3.2310753877        1.8375087647       10.8361234776
 Mo        -1.5615905736        4.5788103997        3.1330087405
 Mo         0.0284938929        3.7007293620        9.2924701887
  S        -1.5750249862        4.6070741126        7.7025981428
  S        -0.0424891645        3.6513256888        4.7069343564
  S         0.0048855998        3.7199873932        1.5654826035
  S        -1.5872044786        4.6384649175       10.8329935525
 Mo         1.6044119460        4.6446974210        3.1599037143
 Mo         1.6250767155        0.8968110430        9.2835814087
 Mo         3.1915268447        3.6958857208        9.2272897867
  S         1.5625573513        4.5946718051        7.7171646139
  S         3.1867701151        3.7511495568        4.7153306424
  S         3.2177992800        3.6865207181        1.5913590016
  S         1.6286796684        4.5704707742       10.8613817302
  S         0.0200976827        1.8661245361        7.7420498543
  S         1.6117532721        0.9061379246        4.7048814066
  S         1.5618484926        0.9634775892        1.6140093308
  S         0.0161103679        1.8427704347       10.8625628625
 Mo         3.1708139851        1.8452536659        3.1480357281
 Mo         4.8007984484        0.9339494784        9.2586380222
  S         3.1297173294        1.8510892396        7.6983998758
      24
 i =        7, time =        7.000, E =      -708.9280393272
 Mo         0.0543914681        1.8594726372        3.1584947202
  S         4.7950332581        0.9294354403        4.7113178710
  S         4.7913536203        0.9263990486        1.5836696123
  S         3.2382900039        1.8320563354       10.8385778108
 Mo        -1.5584715529        4.5777727323        3.1333895502
 Mo         0.0290278898        3.6990073783        9.2956003056
  S        -1.5755856058        4.6042909155        7.7059260780
  S        -0.0477236150        3.6477474263        4.7041233002
  S         0.0006412655        3.7235599617        1.5615423249
  S        -1.5889526623        4.6460555714       10.8299975983
 Mo         1.6024269038        4.6482519878        3.1579567291
 Mo         1.6259708347        0.8964595113        9.2863177133
 Mo         3.1912389587        3.6968082438        9.2246472287
  S         1.5597435473        4.5948132881        7.7200515215
  S         3.1863420684        3.7574392869        4.7151349575
  S         3.2249695007        3.6891957559        1.5921868213
  S         1.6277251199        4.5658558253       10.8650072304
  S         0.0181566514        1.8675756305        7.7427897975
  S         1.6138189045        0.9058774905        4.7040886820
  S         1.5597903506        0.9659427888        1.6145157861
  S         0.0179114047        1.8423048279       10.8703332776
 Mo         3.1677704672        1.8456281819        3.1469849411
 Mo         4.8035753548        0.9337081439        9.2572099560
  S         3.1189133656        1.8498321520        7.6985628756
      24
 i =        8, time =        8.000, E =      -708.9254811470
 Mo         0.0561610131        1.8571928358        3.1575226383
  S         4.7973056763        0.9284048236        4.7090752688
  S         4.7898860916        0.9241645587        1.5796771198
  S         3.2454571924        1.8267096754       10.8409358959
 Mo        -1.5554650933        4.5768741702        3.1337709801
 Mo         0.0294917429        3.6972642397        9.2987996674
  S        -1.5761081611        4.6015184602        7.7092232760
  S        -0.0526583668        3.6443189035        4.7014343809
  S        -0.0033932919        3.7270198817        1.5576276336
  S        -1.5907476831        4.6534442914       10.8270358516
 Mo         1.6003753933        4.6517214991        3.1559773857
 Mo         1.6268004737        0.8961826761        9.2890818943
 Mo         3.1909768952        3.6977041437        9.2221105037
  S         1.5570318071        4.5951033819        7.7227929993
  S         3.1859947792        3.7635327796        4.7148965669
  S         3.2320522029        3.6918835333        1.5929813059
  S         1.6268109238        4.5614519513       10.8684727499
  S         0.0162665536        1.8689594539        7.7434490796
  S         1.6159307047        0.9055203440        4.7033657697
  S         1.5579573513        0.9681525452        1.6147784139
  S         0.0197098666        1.8418059074       10.8779746453
 Mo         3.1647904073        1.8460568792        3.1459745212
 Mo         4.8063291315        0.9333995590        9.2558368785
  S         3.1083688576        1.8485276072        7.6986646848
      24
 i =        9, time =        9.000, E =      -708.9227624791
 Mo         0.0577332805        1.8549147076        3.1565192047
  S         4.7996151921        0.9274792967        4.7068257849
  S         4.7885063920        0.9220307944        1.5757564720
  S         3.2525678095        1.8214886637       10.8431823238
 Mo        -1.5525779585        4.5761259709        3.1341514880
 Mo         0.0298804402        3.6955022446        9.3020726769
  S        -1.5765808049        4.5987675939        7.7124759831
  S        -0.0572682475        3.6410427338        4.6988841016
  S        -0.0071999715        3.7303517218        1.5537472599
  S        -1.5925850834        4.6605964799       10.8241306409
 Mo         1.5982590327        4.6550951249        3.1539628025
 Mo         1.6275567994        0.8959868136        9.2918723244
 Mo         3.1907361370        3.6985663920        9.2196903292
  S         1.5544262748        4.5955405018        7.7253737666
  S         3.1857216675        3.7694168283        4.7146116169
  S         3.2390227223        3.6945792956        1.5937392262
  S         1.6259495837        4.5572707284       10.8717629786
  S         0.0144440637        1.8702713780        7.7440295406
  S         1.6180841591        0.9050621100        4.7027205272
  S         1.5563608380        0.9700912642        1.6147854188
  S         0.0215033731        1.8412701865       10.8854632352
 Mo         3.1618851718        1.8465423682        3.1450055040
 Mo         4.8090531617        0.9330216826        9.2545256958
  S         3.0981210643        1.8471797360        7.6986987844
      24
 i =       10, time =       10.000, E =      -708.9199342383
 Mo         0.0591015796        1.8526439774        3.1554794147
  S         4.8019482586        0.9266675734        4.7045731741
  S         4.7872127120        0.9200111125        1.5719192576
  S         3.2596124668        1.8164123187       10.8453029912
 Mo        -1.5498161634        4.5755386766        3.1345295470
 Mo         0.0301894070        3.6937238404        9.3054230168
  S        -1.5769919338        4.5960491977        7.7156711576
  S        -0.0615298998        3.6379208693        4.6964881667
  S        -0.0107624244        3.7335408938        1.5499095844
  S        -1.5944604447        4.6674776183       10.8213052558
 Mo         1.5960800175        4.6583624666        3.1519103427
 Mo         1.6282314245        0.8958780552        9.2946868862
 Mo         3.1905121721        3.6993882121        9.2173965242
  S         1.5519305396        4.5961220415        7.7277800082
  S         3.1855156708        3.7750792416        4.7142765774
  S         3.2458565894        3.6972782302        1.5944571177
  S         1.6251530975        4.5533227203       10.8748639834
  S         0.0127051875        1.8715071891        7.7445336160
  S         1.6202740188        0.9044992555        4.7021601826
  S         1.5550107904        0.9717449738        1.6145266514
  S         0.0232894400        1.8406943699       10.8927765597
 Mo         3.1590659105        1.8470869275        3.1440786214
 Mo         4.8117411378        0.9325727823        9.2532827919
  S         3.0882060077        1.8457931508        7.6986589814
      24
 i =       11, time =       11.000, E =      -708.9170493208
 Mo         0.0602604554        1.8503861081        3.1543984397
  S         4.8042910669        0.9259777283        4.7023213137
  S         4.7860026620        0.9181183018        1.5681764304
  S         3.2665815183        1.8114987841       10.8472852421
 Mo        -1.5471849449        4.5751220472        3.1349036672
 Mo         0.0304145531        3.6919316104        9.3088536042
  S        -1.5773302924        4.5933741262        7.7187965239
  S        -0.0654218805        3.6349546760        4.6942611547
  S        -0.0140661177        3.7365736925        1.5461227823
  S        -1.5963694441        4.6740535118       10.8185838612
 Mo         1.5938411025        4.6615136026        3.1498176434
 Mo         1.6288164868        0.8958623296        9.2975229776
 Mo         3.1903005313        3.7001631052        9.2152379517
  S         1.5495475907        4.5968443387        7.7299994132
  S         3.1853693163        3.7805088439        4.7138881184
  S         3.2525296217        3.6999754943        1.5951313915
  S         1.6244328980        4.5496174885       10.8777633330
  S         0.0110651489        1.8726631275        7.7449642775
  S         1.6224943227        0.9038291493        4.7016911541
  S         1.5539157444        0.9731014127        1.6139938756
  S         0.0250654499        1.8400753640       10.8998935491
 Mo         3.1563435005        1.8476924973        3.1431943141
 Mo         4.8143871042        0.9320514405        9.2521139850
  S         3.0786582719        1.8443728697        7.6985394656
      24
 i =       12, time =       12.000, E =      -708.9141595116
 Mo         0.0612057419        1.8481462708        3.1532716246
  S         4.8066296090        0.9254171288        4.7000742540
  S         4.7848733126        0.9163645235        1.5645382038
  S         3.2734650382        1.8067653167       10.8491177550
 Mo        -1.5446887156        4.5748849679        3.1352724157
 Mo         0.0305522999        3.6901282565        9.3123665613
  S        -1.5775850823        4.5907531478        7.7218407954
  S        -0.0689248170        3.6321449854        4.6922163926
  S        -0.0170984218        3.7394373431        1.5423947644
  S        -1.5983079022        4.6802905428       10.8159911603
 Mo         1.5915455874        4.6645391463        3.1476826453
 Mo         1.6293047105        0.8959453094        9.3003775285
 Mo         3.1900968303        3.7008848672        9.2132224897
  S         1.5472798050        4.5977026987        7.7320213987
  S         3.1852747709        3.7856955166        4.7134431694
  S         3.2590180372        3.7026662534        1.5957582725
  S         1.6237997890        4.5461636390       10.8804499917
  S         0.0095383018        1.8737358811        7.7453251685
  S         1.6247384107        0.9030501140        4.7013190606
  S         1.5530826893        0.9741501635        1.6131808204
  S         0.0268286343        1.8394102893       10.9067945092
 Mo         3.1537284828        1.8483606670        3.1423527429
 Mo         4.8169854895        0.9314565476        9.2510245022
  S         3.0695108734        1.8429242347        7.6983350447
      24
 i =       13, time =       13.000, E =      -708.9113161438
 Mo         0.0619345609        1.8459293225        3.1520944764
  S         4.8089497363        0.9249923891        4.6978360432
  S         4.7838212373        0.9147612890        1.5610141799
  S         3.2802528152        1.8022282776       10.8507907067
 Mo        -1.5423310563        4.5748353957        3.1356344303
 Mo         0.0305996251        3.6883165817        9.3159631899
  S        -1.5777460655        4.5881968818        7.7247936600
  S        -0.0720214660        3.6294921895        4.6903656084
  S        -0.0198486320        3.7421200172        1.5387333858
  S        -1.6002718370        4.6861559697       10.8135522884
 Mo         1.5891972925        4.6674302795        3.1455036098
 Mo         1.6296894840        0.8961323390        9.3032470298
 Mo         3.1898968070        3.7015476161        9.2113569907
  S         1.5451288993        4.5986913689        7.7338370584
  S         3.1852239135        3.7906301662        4.7129387789
  S         3.2652985332        3.7053457046        1.5963339684
  S         1.6232638983        4.5429688221       10.8829144725
  S         0.0081380308        1.8747226277        7.7456204767
  S         1.6269989701        0.9021614783        4.7010485349
  S         1.5525170404        0.9748827103        1.6120834380
  S         0.0285760486        1.8386964886       10.9134613095
 Mo         3.1512310161        1.8490926725        3.1415537989
 Mo         4.8195311473        0.9307873095        9.2500189477
  S         3.0607950421        1.8414528245        7.6980411436
      24
 i =       14, time =       14.000, E =      -708.9085677492
 Mo         0.0624453575        1.8437397850        3.1508626685
  S         4.8112372246        0.9247093055        4.6956108030
  S         4.7828425442        0.9133194158        1.5576131932
  S         3.2869343275        1.7979031466       10.8522956165
 Mo        -1.5401146820        4.5749802717        3.1359884395
 Mo         0.0305540732        3.6864994712        9.3196439599
  S        -1.5778036702        4.5857157404        7.7276460275
  S        -0.0746968534        3.6269962914        4.6887188670
  S        -0.0223080328        3.7446108682        1.5351463349
  S        -1.6022574965        4.6916181884       10.8112924062
 Mo         1.5868005399        4.6701788074        3.1432791466
 Mo         1.6299649054        0.8964283769        9.3061275646
 Mo         3.1896963638        3.7021458016        9.2096472727
  S         1.5430959514        4.5998035811        7.7354393703
  S         3.1852084009        3.7953047664        4.7123722146
  S         3.2713484105        3.7080091351        1.5968545918
  S         1.6228346256        4.5400397900       10.8851486748
  S         0.0068766758        1.8756210245        7.7458550863
  S         1.6292680557        0.9011636045        4.7008832704
  S         1.5522225650        0.9752925358        1.6106998695
  S         0.0303045566        1.8379315361       10.9198772801
 Mo         3.1488608150        1.8498893850        3.1407971213
 Mo         4.8220193769        0.9300432368        9.2491012868
  S         3.0525401410        1.8399643669        7.6976540712
      24
 i =       15, time =       15.000, E =      -708.9059607606
 Mo         0.0627378886        1.8415818334        3.1495720389
  S         4.8134778341        0.9245728141        4.6934026149
  S         4.7819329177        0.9120490021        1.5543433736
  S         3.2934987416        1.7938045191       10.8536254086
 Mo        -1.5380414444        4.5753254695        3.1363332746
 Mo         0.0304137814        3.6846798721        9.3234085016
  S        -1.5777490877        4.5833198699        7.7303900710
  S        -0.0769383250        3.6246569961        4.6872843303
  S        -0.0244699011        3.7469000359        1.5316412462
  S        -1.6042614021        4.6966470515       10.8092364667
 Mo         1.5843601267        4.6727771907        3.1410082311
 Mo         1.6301258438        0.8968379196        9.3090148498
 Mo         3.1894916065        3.7026742251        9.2080981022
  S         1.5411813795        4.6010315669        7.7368231862
  S         3.1852197363        3.7997123348        4.7117408783
  S         3.2771456578        3.7106519491        1.5973162671
  S         1.6225206021        4.5373824125       10.8871459444
  S         0.0057654574        1.8764292232        7.7460345161
  S         1.6315371451        0.9000579277        4.7008259167
  S         1.5522013777        0.9753751559        1.6090305761
  S         0.0320108102        1.8371132432       10.9260273164
 Mo         3.1466271057        1.8507513098        3.1400821126
 Mo         4.8244459532        0.9292241483        9.2482748234
  S         3.0447735004        1.8384646517        7.6971710788
      24
 i =       16, time =       16.000, E =      -708.9035362379
 Mo         0.0628132206        1.8394592868        3.1482185964
  S         4.8156573728        0.9245869461        4.6912155201
  S         4.7810876527        0.9109593949        1.5512120821
  S         3.2999349046        1.7899461174       10.8547743284
 Mo        -1.5361123266        4.5758757312        3.1366678830
 Mo         0.0301774867        3.6828607722        9.3272556121
  S        -1.5775743749        4.5810191001        7.7330193682
  S        -0.0787356251        3.6224737703        4.6860681552
  S        -0.0263295260        3.7489786600        1.5282256701
  S        -1.6062803789        4.7012141678       10.8074088499
 Mo         1.5818812996        4.6752185854        3.1386902213
 Mo         1.6301679797        0.8973649315        9.3119042840
 Mo         3.1892788828        3.7031280497        9.2067131963
  S         1.5393849643        4.6023666065        7.7379853140
  S         3.1852493390        3.8038469482        4.7110423384
  S         3.2826690597        3.7132697102        1.5977151268
  S         1.6223296546        4.5350017105       10.8889009906
  S         0.0048144202        1.8771458597        7.7461649787
  S         1.6337971912        0.8988469816        4.7008780965
  S         1.5524539285        0.9751281607        1.6070783159
  S         0.0336912366        1.8362396633       10.9318978368
 Mo         3.1445385745        1.8516785801        3.1394079562
 Mo         4.8268071430        0.9283301660        9.2475421916
  S         3.0375203309        1.8369594430        7.6965905249
      24
 i =       17, time =       17.000, E =      -708.9013317630
 Mo         0.0626736898        1.8373756098        3.1467985221
  S         4.8177617526        0.9247547998        4.6890533819
  S         4.7803016957        0.9100591718        1.5482260176
  S         3.3062313573        1.7863407803       10.8557380166
 Mo        -1.5343274700        4.5766346342        3.1369913317
 Mo         0.0298445444        3.6810451775        9.3311832662
  S        -1.5772725362        4.5788228868        7.7355288829
  S        -0.0800808985        3.6204459250        4.6850742882
  S        -0.0278841683        3.7508388609        1.5249071948
  S        -1.6083115968        4.7052932366       10.8058331205
 Mo         1.5793697260        4.6774968624        3.1363248640
 Mo         1.6300878570        0.8980127641        9.3147910070
 Mo         3.1890548189        3.7035028192        9.2054952228
  S         1.5377058291        4.6037990596        7.7389244289
  S         3.1852886105        3.8077037118        4.7102742328
  S         3.2878982690        3.7158581745        1.5980474653
  S         1.6222687730        4.5329018668       10.8904099662
  S         0.0040323778        1.8777700712        7.7462532608
  S         1.6360386817        0.8975344207        4.7010403046
  S         1.5529790450        0.9745512053        1.6048482427
  S         0.0353420230        1.8353090947       10.9374769006
 Mo         3.1426033366        1.8526709617        3.1387736309
 Mo         4.8290997279        0.9273617195        9.2469053462
  S         3.0308035654        1.8354543931        7.6959118779
      24
 i =       18, time =       18.000, E =      -708.8993782346
 Mo         0.0623228865        1.8353339126        3.1453081871
  S         4.8197770579        0.9250785058        4.6869199351
  S         4.7795696736        0.9093561099        1.5453910960
  S         3.3123763268        1.7830004847       10.8565133625
 Mo        -1.5326861788        4.5776045347        3.1373028160
 Mo         0.0294149180        3.6792360924        9.3351886373
  S        -1.5768376053        4.5767402671        7.7379151270
  S        -0.0809687548        3.6185726611        4.6843044657
  S        -0.0291330744        3.7524737595        1.5216933538